# vtk DataFile Version 2.0
Really cool data
ASCII
DATASET POLYDATA
POINTS 7168 float
-5.85212 11.909043 15.887718
-5.87995 11.84305 16.597815
-5.8431306 11.9142685 17.254648
-5.8760695 11.755297 18.118015
-5.9084387 11.899066 18.551395
-5.8845353 11.998547 18.939817
-5.928697 12.698287 14.755701
-5.8899937 12.556588 15.127409
-5.916016 12.32204 15.803943
-5.9244633 12.289448 16.554783
-5.9088764 12.200353 17.25826
-5.952843 12.2720785 17.923496
-5.9574027 12.287367 18.549809
-5.8927116 12.301669 18.967134
-5.8706284 13.226649 14.08354
-5.919025 13.0928335 14.411085
-5.9533663 13.022702 15.039215
-5.958361 12.915982 15.753559
-5.946931 12.934149 16.463774
-5.9448094 12.961359 17.198004
-5.96419 12.894141 17.969427
-5.937011 12.900066 18.519983
-5.8710127 12.822029 18.9354
-5.870605 13.57546 14.066226
-5.936381 13.612583 14.418618
-5.967742 13.628191 14.973381
-5.9197044 13.564503 15.608526
-5.8790245 13.482414 16.531614
-5.880704 13.530854 17.18543
-5.8756666 13.499101 17.941113
-5.8822484 13.3513 18.409138
-5.8520393 13.30649 18.90117
-5.882313 13.995094 14.473917
-5.881904 14.02252 15.024742
-5.8334484 13.930531 15.516673
-5.158934 7.044452 16.80296
-5.1770973 7.0080295 17.072445
-5.15419 7.072871 17.429398
-5.1987896 7.3362265 16.73248
-5.2452435 7.33255 17.110725
-5.2025676 7.377754 17.521513
-5.195344 7.8364835 16.75784
-5.234208 7.8631134 17.14118
-5.1949425 7.8603644 17.543589
-5.1545234 8.4000225 17.3087
-5.210972 11.131778 14.841359
-5.260268 10.821669 15.109343
-5.5135856 11.16587 15.786815
-5.555403 11.156386 16.495626
-5.4959106 11.067583 16.86798
-5.5593233 11.302356 17.903915
-5.5812297 11.255663 18.513575
-5.506585 11.347323 19.035429
-5.2179375 12.034582 13.887738
-5.54602 11.964892 14.61192
-5.6447163 11.780424 15.217553
-5.7308536 11.690571 15.742126
-5.766442 11.608002 16.398672
-5.72845 11.651704 17.19169
-5.798496 11.764074 17.924664
-5.7719293 11.635015 18.604626
-5.688618 11.718982 19.120176
-5.498251 11.754313 19.487259
-5.2925315 12.702617 13.485181
-5.4675074 12.458128 13.864868
-5.728322 12.451475 14.510498
-5.8083253 12.266776 15.177474
-5.7911625 12.161728 15.658959
-5.760025 12.215236 17.236692
-5.687695 12.062388 17.59256
-5.7674804 12.2601385 19.24675
-5.5480676 12.28252 19.611511
-5.324713 12.521619 19.980696
-5.421707 13.116023 13.303221
-5.6961226 13.05948 13.809319
-5.7852793 12.858707 14.33939
-5.7768545 12.706807 17.093227
-5.756215 12.900762 19.209677
-5.524973 12.921641 19.62985
-5.2723527 12.943265 19.994114
-5.5206013 13.603635 13.387295
-5.742508 13.656837 13.804215
-5.789199 13.808252 16.031591
-5.76934 13.842412 16.463493
-5.7758484 13.621702 17.305822
-5.771156 13.694153 17.868818
-5.7364564 13.592974 18.572865
-5.653711 13.500548 19.132542
-5.39563 13.5261965 19.628193
-5.3949776 14.130304 13.378151
-5.6391363 14.160659 13.841245
-5.758538 14.197359 14.33462
-5.7569065 14.24061 14.991385
-5.6614094 14.213156 15.701317
-5.6686497 14.224005 16.51489
-5.6881394 14.177543 17.148895
-5.614605 14.215128 17.828758
-5.5362735 14.127002 18.473024
-5.3953276 14.04153 19.164173
-5.2497845 14.000115 19.554733
-5.3965955 14.585831 13.86754
-5.4786267 14.623266 14.347876
-5.537315 14.577659 14.933999
-5.4330983 14.599813 15.817603
-5.4286265 14.672262 16.53114
-5.387275 14.724737 17.125866
-5.3748364 14.608105 17.771355
-5.3388743 14.483887 18.45527
-5.2538085 14.417987 18.869095
-4.7813454 6.540025 16.689135
-4.822697 6.516158 17.11693
-4.7631664 6.5581236 17.53384
-4.7724724 6.90966 16.197231
-4.98339 6.8304596 16.636835
-5.0472007 6.777961 17.130774
-4.9460106 6.85752 17.615658
-4.7731485 7.0016947 18.004442
-4.5720234 7.480181 15.680577
-4.8308744 7.325983 16.07593
-5.0905 7.3611383 16.4786
-5.081376 7.337929 17.743023
-4.8572984 7.395082 18.071342
-4.8785415 7.9676137 16.11516
-5.085994 7.854812 16.542604
-5.110427 8.226794 17.385073
-5.0591125 7.9048176 17.813038
-4.830777 7.9169683 18.179123
-4.5810647 8.612551 15.550321
-4.725092 8.630179 16.046713
-4.9494123 8.50913 16.701101
-5.05837 8.467432 17.184221
-4.981904 8.56564 17.586603
-4.6641026 8.694638 18.238947
-4.425193 9.083789 23.963234
-4.514973 9.847142 13.940028
-4.586633 9.565214 14.612796
-4.590579 9.519335 14.905501
-4.8187723 9.553254 15.819019
-4.702376 9.375541 16.559479
-4.8286867 9.399797 17.174694
-4.6483707 9.144882 17.814924
-4.421886 9.478936 23.829731
-4.4203143 9.323398 24.167255
-4.4128737 9.251879 24.453335
-4.426422 10.480535 11.085713
-4.445186 10.545644 11.464359
-4.458889 10.524708 13.293254
-4.5443873 10.405154 13.734956
-4.684046 10.152558 14.394356
-4.959566 10.32732 15.033927
-5.049602 10.389124 15.728934
-4.9757442 10.479245 16.979446
-4.4247904 9.709949 24.416698
-4.440141 10.945136 11.013897
-4.4836884 10.9489155 11.464584
-4.520277 10.885441 12.138157
-4.5818315 11.006266 13.160123
-4.871207 11.126972 13.816245
-4.981076 10.758525 14.429489
-5.0301256 10.888236 15.077182
-5.2125254 10.935622 18.205791
-4.9602227 11.087647 19.259027
-5.0948386 11.310958 19.483746
-4.4569473 11.56688 11.115438
-4.4931746 11.528181 11.6117935
-4.568045 11.66188 12.32965
-4.75955 11.63437 13.216136
-5.018041 11.805911 13.568549
-5.1043563 11.509102 14.246575
-5.1554966 11.753796 19.787968
-4.965274 11.686243 19.936417
-4.4964876 12.159575 11.70381
-4.7242637 12.249684 12.39153
-4.914644 12.294844 12.988206
-5.0925326 12.238155 13.628861
-5.2662907 12.051466 19.797377
-5.0431023 12.312778 20.045494
-4.5328245 12.835761 11.793843
-4.756013 12.984799 12.481526
-5.0267544 12.881285 12.965101
-4.999463 13.0112295 20.158363
-4.511033 13.786686 12.018684
-4.8630776 13.748786 12.640774
-5.150133 13.712821 13.054883
-5.154428 13.612451 19.909311
-4.933802 13.587283 20.14111
-4.5150504 14.058015 12.036741
-4.7878737 14.132192 12.644843
-5.0707903 14.226092 13.086848
-5.1619935 14.302406 19.274466
-4.9734206 14.18261 19.788923
-4.7667236 14.010544 20.136068
-4.638978 14.653056 12.624493
-4.8281584 14.781858 13.132648
-5.108855 14.810492 13.830033
-5.187056 14.928361 14.43658
-5.155719 14.929976 14.904978
-5.1248507 14.904348 15.718918
-5.178942 14.933374 16.479198
-5.1700125 14.944009 17.08898
-5.1176805 14.861355 17.855618
-4.9845448 14.776246 18.49736
-4.943119 14.617139 19.150827
-4.7975373 14.479671 19.676924
-4.7016516 15.107075 13.304585
-4.716294 15.195228 13.688147
-4.827507 15.210156 14.393124
-4.8872714 15.146477 14.834311
-4.827215 15.104315 15.727774
-4.9311576 15.140856 16.532925
-4.914352 15.139856 17.120882
-4.867522 15.12693 17.606003
-4.72289 15.039808 18.314272
-3.9684703 6.481885 15.594778
-4.157991 6.3635354 16.02927
-4.3892474 6.3061657 16.576595
-4.3884664 6.268833 17.09057
-4.4099674 6.425967 17.613852
-4.2039127 6.587838 17.975176
-3.8959858 7.078165 15.040011
-4.1192465 6.8211823 15.469093
-4.373145 6.710607 15.861805
-4.544706 6.6528115 17.884611
-4.382928 6.8681803 18.14937
-3.8851697 7.6331787 14.9279995
-4.302939 7.422748 15.47451
-4.508553 7.239485 15.782617
-4.508329 7.3444695 18.365528
-4.228947 7.678884 18.641926
-3.97437 8.566794 14.70232
-4.2208796 8.195048 15.224234
-4.524154 7.913996 18.472979
-4.2410116 8.129011 18.669113
-3.8761258 8.508804 22.935108
-4.01105 8.386111 23.5674
-4.0502715 8.438195 24.071898
-3.9804761 8.5448475 24.607424
-3.8776128 9.379008 11.180433
-3.8686142 9.405394 11.617143
-4.0632253 9.298866 13.922326
-4.076334 8.947914 14.2976465
-4.5309405 8.489638 18.40512
-4.213035 8.642279 18.663084
-3.8191552 8.957284 22.680964
-4.0245223 8.857673 23.0297
-4.2389646 8.855785 23.593422
-4.2996435 8.906499 24.165525
-4.1893005 8.949919 24.671917
-4.0176516 9.045656 25.026945
-3.956018 9.807991 10.458112
-4.0664077 9.773229 10.931787
-4.075551 9.723101 11.499005
-4.0161033 9.8134365 12.089133
-4.039801 10.045126 13.065454
-4.0283194 9.769429 13.6353
-4.2475495 9.386261 18.33544
-4.058663 9.452447 23.068056
-4.322571 9.402817 23.656645
-4.3669143 9.39572 24.22888
-4.2678356 9.456605 24.741476
-4.0723677 9.44473 25.066715
-3.9491222 10.365944 9.912967
-4.1165285 10.27581 10.307331
-4.288607 10.280978 10.903767
-4.2724485 10.156705 11.474214
-4.273508 10.257774 12.382228
-4.390138 10.103171 13.374605
-4.376475 10.281285 13.547717
-4.4631844 10.662665 18.952333
-3.9905128 9.970089 23.203175
-4.1679626 9.96215 23.662756
-4.2803645 9.900381 24.223263
-4.1827955 9.918264 24.684778
-4.0029445 9.86971 25.054094
-3.9943566 10.880206 9.809343
-4.2505436 10.890709 10.311786
-4.3770223 10.875999 10.8166485
-4.356672 10.637578 11.67415
-4.3840566 10.946747 12.264958
-4.320547 10.680043 12.634688
-4.5879283 11.073737 19.444656
-3.9796846 10.356127 23.674519
-4.0227256 10.377702 24.212824
-3.9694088 10.37193 24.58436
-3.9054005 10.295696 24.9701
-3.9743361 11.387649 9.849266
-4.218351 11.435307 10.287154
-4.343893 11.472265 10.831978
-4.288483 11.750043 20.03543
-3.89519 11.810568 9.911346
-4.0050435 12.03666 10.316987
-4.287797 12.177003 10.980824
-4.404117 12.215882 11.4515295
-4.417757 12.573043 20.31173
-3.9421225 12.835336 10.642124
-4.134575 12.798081 11.041197
-4.2777867 12.971079 11.723674
-4.4175906 13.012852 20.433577
-3.954672 13.541892 11.131712
-4.3627853 13.640483 11.772272
-4.4601083 13.649495 20.403759
-4.241634 13.700541 20.571007
-4.0056763 14.11759 11.407986
-4.2604737 14.241772 11.843233
-4.337677 14.199129 20.264788
-4.0679603 14.836021 11.949469
-4.3045483 14.944341 12.355687
-4.452916 15.044776 12.821006
-4.6642313 14.926899 18.776476
-4.443607 14.863345 19.198874
-4.3984656 14.64602 19.79309
-4.300512 14.468585 20.093985
-3.9365072 15.294218 12.047239
-4.1106405 15.351758 12.496777
-4.3254886 15.34688 12.980674
-4.253909 15.614668 13.726069
-4.2559614 15.614543 14.354737
-4.3042793 15.303253 15.005638
-4.1487007 15.514479 15.756076
-4.519234 15.287512 16.510025
-4.512393 15.321764 17.358496
-4.43093 15.246721 17.68606
-4.446031 15.061822 18.476559
-4.338268 14.977092 19.070843
-4.0644007 15.869221 13.215804
-4.0289326 15.943404 13.652444
-3.898608 16.13686 14.112018
-3.8725777 15.849603 15.507505
-3.2891786 5.987742 15.49828
-3.4493136 5.9879723 15.906954
[...]
POINT_DATA 7168
SCALARS features_00 float 1
LOOKUP_TABLE default
0.2744851 0.29008794 0.34488213 0.43843296 0.5048266 0.5541486 0.3502242 0.33502132 0.31298056 0.3268093 0.36783874 0.44139957 0.51788783 0.5679406 0.39790833 0.3906054 0.38377237 0.3637769 0.36521387 0.39998034 0.46769935 0.53218037 0.5809568 0.42550915 0.43221283 0.4259229 0.40520483 0.39439481 0.42403007 0.486516 0.5330318 0.5892555 0.4396333 0.42733994 0.41292068 0.7739681 0.79749066 0.80692315 0.7309955 0.76364386 0.77868485 0.66648835 0.70059884 0.7268686 0.6382925 0.17381348 0.15717119 0.20384839 0.21353346 0.21799304 0.36519933 0.4570474 0.5172539 0.22583272 0.25415713 0.25091293 0.25070277 0.2567454 0.31043854 0.41196334 0.498729 0.5568298 0.57645136 0.29980218 0.28803658 0.31262687 0.30224496 0.29439777 0.365562 0.39117858 0.5955013 0.62276256 0.6520616 0.34264657 0.3685523 0.36060643 0.38161084 0.6156608 0.65568984 0.67419046 0.38821855 0.419779 0.4018758 0.4037994 0.4365452 0.4860683 0.55987006 0.6227802 0.6695546 0.391959 0.4251668 0.43364772 0.41752598 0.39700693 0.40130323 0.4321143 0.4830172 0.5466138 0.6221925 0.65709627 0.39386007 0.39464006 0.38528347 0.36000243 0.37066215 0.3994217 0.45781028 0.5273786 0.57198155 0.82007647 0.84601897 0.8494522 0.7225282 0.78625894 0.82496595 0.8312495 0.8135698 0.5462465 0.6422615 0.69877243 0.7884948 0.7811363 0.55277836 0.6363708 0.6702018 0.73082006 0.7257635 0.32578385 0.41396642 0.54795235 0.61495537 0.63082814 0.5964744 0.9315815 0.062421568 0.08651081 0.106372796 0.16797535 0.30214134 0.38110045 0.50100744 0.8790734 0.92551 0.9438323 0.42605326 0.36024132 0.09809613 0.0809167 0.080257036 0.11110755 0.13193095 0.15265664 0.8967854 0.42278427 0.34545767 0.23243752 0.1167129 0.12515709 0.122131556 0.15390873 0.36836258 0.43661183 0.49660367 0.37417734 0.29998446 0.20198987 0.15198034 0.18089919 0.18069509 0.5674683 0.5458311 0.2711388 0.2190448 0.22015525 0.23657033 0.6065601 0.6313927 0.2571401 0.2625824 0.28538927 0.67637175 0.2685648 0.306905 0.35158634 0.6816217 0.67955476 0.27061763 0.30762142 0.35253316 0.61880714 0.6576116 0.663749 0.2941168 0.32269958 0.35792702 0.34379917 0.3244605 0.3090332 0.3296615 0.36559263 0.43460488 0.4954489 0.5764563 0.6263019 0.3056623 0.30321378 0.2899791 0.28187907 0.2613002 0.2897514 0.3274591 0.36772728 0.43323588 0.685348 0.75704783 0.82379186 0.8517654 0.84546196 0.81040627 0.52535117 0.61638343 0.69384444 0.83287406 0.80202794 0.41467363 0.5165075 0.599383 0.76427805 0.6984644 0.21415827 0.34733537 0.7011821 0.6344942 0.8287043 0.9149874 0.95254 0.96813035 0.40682054 0.34469572 0.06183157 0.112537384 0.6166569 0.51894784 0.76768935 0.83963525 0.91445076 0.95426404 0.9656603 0.9594847 0.50846934 0.4553817 0.3707069 0.27524474 0.11887874 0.06649737 0.31291446 0.7863986 0.87012583 0.922945 0.93527067 0.9357157 0.5613371 0.53433746 0.4611367 0.3715611 0.21560307 0.0850582 0.08074403 0.20503107 0.71011114 0.77400863 0.85285497 0.88184357 0.8927322 0.55771184 0.5201963 0.45770893 0.32441258 0.2155606 0.16771674 0.36017624 0.69311726 0.7623682 0.8000388 0.83103615 0.5167086 0.48436522 0.42262006 0.46247447 0.4667847 0.42455012 0.3536545 0.29872984 0.6253476 0.3345452 0.30989558 0.2642145 0.6465405 0.27976137 0.2640721 0.65218914 0.63272464 0.26248413 0.26365587 0.6286563 0.25795844 0.2709567 0.2875913 0.48868218 0.52419984 0.59298134 0.6091752 0.2570101 0.2710471 0.2830133 0.27194518 0.23748365 0.2136895 0.15816396 0.2299103 0.28960004 0.32043675 0.4228255 0.4901299 0.28976905 0.2843082 0.27358627 0.13899982 0.73246086 0.76274115 0.7972989 0.8120953 0.6333675 0.6891699 0.75601333 0.80725324 0.8233335 0.7964878 0.7704238 0.55986553 0.613468 0.751112 0.7128486 0.46708906 0.6767482 0.8013387 0.86831355 0.9034226 0.92137456 0.2943987 0.6019459 0.7292169 0.8155199 0.890078 0.9386362 0.9554466 0.951633 0.48538804 0.46379477 0.4150916 0.35174114 0.2755418 0.06995782 0.06722017 0.14573587 0.4507852 0.71460736 0.9541496 0.53448826 0.5257937 0.5053895 0.47521973 0.30926278 0.18192096 0.117496274 0.6472627 0.9236017 0.9039489 0.55173874 0.56097704 -0.09555124 -0.118096575 0.4968773 0.86778855 0.87233484 0.5493666 0.5650642 0.11253791 0.08956996 0.43292964 0.5124519 0.60007304 0.68845654 0.76523185 0.79716593 0.49010104 0.5143895 0.35497254 0.2792021 0.4493268 0.54897606 0.62475777 0.68041134 0.43542987 0.4050051 0.3475427 0.5550394 0.51415354 0.32454637 0.30864176 0.28494304 0.5892086 0.584111 0.25871456 0.26524186 0.580135 0.6056881 0.25163814 0.2490952 0.5084298 0.5264886 0.5665168 0.25337136 0.2695928 0.13760984 0.15931198 0.20909093 0.3545366 0.46909955 0.30030245 0.34477627 0.34795249 0.29580742 0.2089415 0.065515324 0.03208265 0.36159217 0.41456476 0.42283362 0.37355828 0.29749784 0.21882936 0.4180803 0.46935487 0.47021884 0.42681766 0.34303904 0.7241656 0.7513662 0.76083165 0.7508827 0.6509786 0.6948674 0.73101103 0.70915437 0.65695417 0.5266787 0.5567432 0.63952845 0.64141816 0.4850371 0.4177432 0.58973515 0.64852583 0.73981535 0.80553216 0.8450848 0.88176095 0.31732148 0.20432466 0.21074611 0.51715755 0.6782037 0.900354 0.9057701 0.4426527 0.45146954 0.41910315 0.37778926 0.28633612 0.04954244 0.07156056 0.19155508 0.5379006 0.61571515 0.9118448 0.881227 0.48797762 0.4979991 -0.2146123 -0.2262862 -0.04099074 0.4122232 0.88106453 0.5286327 -0.25386676 0.029818594 0.32393554 0.82444054 0.821352 0.5042371 -0.19535401 -0.075321406 0.20658727 0.33846816 0.41262087 0.7440382 0.754423 0.46029556 -0.100580424 0.25365818 0.33576468 0.3760648 0.46891397 0.5500348 0.63403165 0.66694796 0.36490542 0.34733504 0.19074836 0.28947267 0.36735448 0.4286407 0.52099293 0.57035285 0.31546906 0.68752265 0.6754728 0.3043061 0.29657185 0.4780125 0.40805295 0.7104837 0.70646006 0.6992564 0.70789677 0.27914533 0.5047326 0.7174081 0.7281234 0.7342672 0.74094176 0.7288784 0.24519481 0.21770006 0.25247124 0.44687715 0.48039997 0.7087511 0.7120613 0.7344719 0.7485491 0.7372761 0.69950396 0.21488562 0.22624496 0.17285343 0.1755721 0.31075758 0.68749714 0.7117185 0.73295605 0.72152954 0.6953868 0.20102468 0.25601804 0.30271092 0.070212364 0.021243688 0.6953106 0.70757914 0.70138943 0.67679834 0.31730568 0.36447382 0.25185847 0.17962301 0.11818525 0.07151537 0.4364305 0.48430675 0.49812454 0.43279618 0.35324466 0.23574017 0.17258607 0.5017783 0.50799936 0.46971554 0.38305408 0.7072327 0.7288402 0.7160879 0.6804262 0.6544466 0.68486685 0.6353092 0.6061137 0.60192347 0.5220202 0.5421454 0.44349837 0.42689192 0.46363312 0.5589764 0.6356155 0.6864283 0.7342353 0.77934647 0.30276874 0.28299826 0.25820678 0.19930232 0.08342776 -0.007670909 0.13234437 0.42266038 0.7878413 0.8410264 0.773707 0.7776753 0.76330334 0.39178252 0.3765152 0.06620252 -0.04747013 0.040508375 0.19986823 0.4352546 0.8267379 0.78982615 0.79965234 0.804015 0.77522445 0.42852128 0.4453045 -0.0071618706 0.79541445 0.80025184 0.8159741 0.81434786 0.7881441 0.46894127 0.7748264 0.7928318 0.805708 0.80490106 0.7678311 0.46690434 0.6973853 0.7106727 0.7654809 0.74478275 0.7481669 0.35349298 0.6054126 0.6446248 0.65792596 0.2701762 0.27408263 0.2854892 0.40136006 0.4767522 0.5599238 0.594319 0.6137458 0.59194195 0.20732544 0.27762237 -0.024572007 0.12490553 0.6422604 0.67613745 0.65195763 0.6158289 0.58734006 0.5327122 0.21525851 0.21851434 0.25746724 0.6782718 0.69576037 0.67022204 0.6216161 0.65455335 0.23985311 0.67907345 0.7043466 0.65408325 0.5890614 0.2294758 0.21218087 0.15258586 0.6560292 0.6846081 0.69086623 0.666813 0.6397519 0.16311058 -0.05131621 -0.037668884 0.13439362 0.6395377 0.6574911 0.67097557 0.6744382 0.6130215 0.21848449 0.04249481 0.010139508 0.6106558 0.6336724 0.67225504 0.68882644 0.67654485 0.64501387 0.5776632 0.25941828 0.13484746 0.11098566 0.096681565 0.6277441 0.65127784 0.6619279 0.6459724 0.61103153 0.3263228 0.43717304 0.23902266 0.18573073 0.16884042 0.4560492 0.48593158 0.4947977 0.45969608 0.3696099 0.24976681 0.67225456 0.68013155 0.662552 0.63053846 0.60567725 0.64334023 0.6284498 0.618433 0.56571865 0.54429644 0.5272239 0.45967674 0.40967536 0.12719637 0.1773887 0.3145297 0.4409626 0.23940064 0.290983 0.27443594 0.33646208 0.4557259 0.529382 0.56576145 0.6130873 0.7232964 0.726786 0.6999575 0.27915722 0.2673524 0.21046713 0.09670307 0.021760136 -0.08426368 -0.11613956 0.16532971 -0.020116542 -0.06359457 0.19052091 0.62417877 0.73747134 0.74022824 0.7513423 0.74899304 0.7204979 0.67873466 0.31611902 0.34342882 0.7179917 0.74560314 0.7469225 0.76679623 0.73312557 0.6895161 0.5832039 0.40132573 0.69810313 0.7064935 0.7563503 0.783126 0.6962108 0.5571801 0.391344 0.7371512 0.7610396 0.672369 0.3621766 0.67196727 0.68441343 0.73069274 0.69291764 0.6751766 0.541963 0.2575951 0.15712294 0.62123835 0.63675 0.6002142 0.32848093 0.19342163 0.44331753 0.525414 0.5830131 0.5917345 0.56792647 0.5184187 0.42697525 0.13566217 0.1575219 -0.09129031 0.051859647 0.20027865 0.26508826 0.466376 0.48835036 0.6414521 0.6317834 0.5210306 0.45629403 0.17078021 -0.18536136 0.5837525 0.62933666 0.5058649 0.19869345 0.59023726 0.6242502 0.53129065 -0.09369733 0.5983614 0.6297572 0.54249895 0.091426 -0.011418456 -0.007661501 -0.045620322 0.5663265 0.5823519 0.52153134 0.011504993 0.08215258 0.071489125 0.09340431 0.16926676 0.5676416 0.6043936 0.5267184 0.15656218 0.20391765 0.11408712 0.22072008 0.23713969 0.5907428 0.6157212 0.631044 0.59741247 0.5465708 0.51859736 0.295331 0.2211017 0.23435736 0.26384023 0.27132186 0.26597726 0.58837605 0.5997057 0.58243406 0.41117883 0.43588042 0.41436732 0.40578088 0.2862839 0.2447114 0.26065293 0.3154592 0.31937644 0.8452088 0.85316974 0.832798 0.78486615 0.796855 0.8042361 0.77800465 0.7221218 0.666765 0.6989841 0.722237 0.69797736 0.6478516 0.6018857 0.55959296 0.5815437 0.57877535 0.54057837 0.51251984 0.42574996 0.4506829 0.4867199 0.4493397 0.43564004 0.5449527 0.5154 0.5128969 0.50550324 0.49348056 0.47105753 0.3161965 0.32857707 0.3513634 0.34604466 0.31015822 0.44922316 0.44752055 0.36654606 0.29611945 0.69142807 0.6950133 0.68382496 0.6523326 0.12909877 0.17817366 0.23356357 0.08917001 0.14963995 -0.059765235 -0.2156281 0.30493143 0.15616229 0.23357868 0.28462505 0.3859877 0.4554557 0.6853165 0.6986541 0.70712507 0.68536156 0.6393156 0.56310713 0.1351446 0.0018690228 -0.09617188 -0.1492841 -0.22007772 -0.05340393 -0.117859505 -0.08106693 0.044273492 0.3410342 0.40551767 0.69862425 0.694294 0.71481997 0.6115009 0.550043 0.22814709 0.5637945 0.7134668 0.7287581 0.5403501 0.25058612 0.60978943 0.72034794 0.50439143 0.24075805 0.59524643 0.6365881 0.68828213 0.42750955 0.22709961 0.6468502 0.6116152 0.6235883 0.3205473 0.13176864 0.13158676 0.60750246 0.6246382 0.553869 0.48126742 0.3323188 0.07423797 0.5081383 0.5847468 0.28958422 0.33384517 0.5585444 0.42592087 0.2806815 0.257343 0.062222738 0.06091967 0.17130008 0.43824393 0.5091322 0.49205372 0.30902094 0.010613224 0.06860375 -0.20289248 -0.1104765 -0.0839597 0.50953376 0.33347738 -0.11540949 -0.17405893 0.49946433 0.31693372 0.11856218 -0.027144315 -0.044991586 0.4738813 0.5044502 0.11239368 -0.035777174 0.09345285 0.03741324 0.48325777 0.530084 0.14760862 -0.0704027 -0.01678741 0.17051548 0.18520285 0.45327926 0.49775225 0.36616534 0.029679045 0.010753855 0.105800614 0.25501657 0.27781475 0.48052007 0.53897715 0.51798666 0.45148695 0.41041633 0.22782327 0.09223007 0.08014494 0.16858715 0.24619621 0.3144106 0.31345358 0.30514365 0.54309165 0.5516107 0.55468357 0.5256839 0.43877852 0.19013837 0.12830445 0.3267919 0.28521177 0.3156131 0.24777785 0.26071095 0.2908929 0.3492421 0.37446514 0.38737118 0.35769773 0.31133974 0.3764067 0.41333935 0.42678088 0.41689414 0.4101052 0.4180959 0.8874206 0.8989265 0.8937913 0.8473372 0.8232366 0.8617773 0.88092446 0.86146903 0.8061961 0.7512713 0.7668096 0.80023205 0.7312075 0.6934215 0.6722396 0.6670997 0.6620196 0.6246515 0.6134423 0.4727813 0.49632597 0.54574513 0.5292511 0.37750518 0.3819716 0.41579068 0.42585278 0.66608727 0.6571616 0.24944296 0.25675723 0.29393095 0.2120687 0.31672642 0.30780184 0.34825987 0.28545398 0.2954375 0.65599215 0.67326844 0.6784648 0.66278017 0.62961817 0.5621511 0.1722787 0.19375157 -0.17614734 -0.17542216 0.14470877 0.23394388 -0.1161195 -0.15043658 -0.11438513 -0.056834865 0.03972404 0.13817519 0.19204505 0.23467779 0.65959287 0.6771975 0.55083585 0.06348704 0.0027534664 -0.14020231 -0.10066605 -0.05587036 0.24439915 0.30400658 0.34717008 0.6505567 0.6585858 0.49967486 0.45779246 0.07085518 0.30884966 0.67624253 0.39867947 -0.08840719 0.038596824 0.49800128 0.6581371 0.13189784 0.56314373 0.61618024 0.30740297 0.55680346 0.60080314 0.55737066 0.5098139 0.06009906 0.028107824 0.55989176 0.44926268 0.42255744 -0.03782451 0.15712032 -0.093534425 0.37560302 0.5389311 0.09004077 0.23484069 0.2086448 0.14566198 0.18427798 -0.1649903 -0.13304237 0.31626433 0.2986294 0.283248 0.16305193 0.1409405 -0.24754016 -0.22146949 -0.22999993 -0.17072761 0.3970415 0.2251611 -0.2082696 -0.1770919 0.38300407 0.091208324 -0.23404825 -0.32509702 -0.023192132 -0.06868611 0.39788574 0.37907928 -0.122639745 0.11020315 0.3936984 -0.022571206 -0.02818264 -0.032482818 0.22761284 0.22859187 0.4038862 0.41577727 0.15454888 0.08015641 0.29037446 0.46407825 0.4489265 0.27817595 0.08951058 0.15196261 0.1267052 0.03752687 0.3673928 0.332175 0.45914575 0.4833438 0.46460554 0.44178003 0.35973838 0.11237332 0.21943259 0.24475104 0.22733241 0.2142775 0.08645962 0.0297513 0.009452283 0.00257626 0.19623396 0.41541526 0.41011193 0.28975564 0.28927732 0.2792726 0.25071257 0.3207224 0.46025652 0.45288295 0.36304897 0.4221254 0.45420957 0.46907175 0.87316144 0.9026811 0.91067666 0.8651236 0.8132173 0.8086759 0.8513039 0.8140439 0.77799344 0.7281344 0.7345294 0.6742421 0.6223472 0.5924744 0.341116 0.46404302 0.49544272 0.26553118 0.30107585 0.3470286 0.34746933 0.6501248 0.6478024 0.6274462 0.18476346 0.21001288 0.090133786 0.1862212 0.22597674 0.25260904 0.19798873 0.6407516 0.6514721 0.590086 0.53325176 0.043714136 0.08904865 -0.24110495 -0.113122515 0.0740791 0.1140209 0.14962786 0.05204535 -0.14495914 -0.13976483 -0.13202798 -0.10554899 0.014455494 0.16342816 0.62780714 0.6363993 0.48202902 0.40228546 0.0055121467 0.0055008233 -0.13612688 -0.08525165 -0.086930946 -0.07089014 0.100200966 0.1177294 0.15045199 0.6258911 0.40124822 0.140595 -0.034629434 -0.013146609 0.017959833 0.61466646 0.2298982 -0.06938514 0.25480753 0.5877242 0.29643372 -0.260825 -0.19146386 -0.061403885 0.34958178 0.5249908 0.24895929 -0.27854043 -0.19573244 -0.19600794 0.44636637 -0.40458947 -0.21675588 -0.014772981 0.37801483 -0.2624243 -0.1856321 0.27046686 0.4278207 0.053460967 -0.35657382 0.39416254 0.4545973 0.474881 0.11978935 0.00011315942 -0.36240205 -0.3706031 -0.23798065 -0.15726794 0.18449701 0.35133985 0.4594847 0.49977663 0.5182831 0.24225065 -0.3177101 -0.50691473 -0.22273985 0.07365215 0.26751208 0.33466348 0.41304028 0.46547806 0.5178904 0.53833234 0.28840536 -0.04602955 -0.17239115 0.22552499 0.31965703 0.39350337 0.44046462 0.49175856 0.52026784 0.28852078 0.3196877 0.03780722 0.24686587 0.40272677 0.44315794 0.46646857 0.47264183 0.29357752 0.30155587 0.19120862 0.31828952 0.34117353 0.29806522 0.24391697 0.36303687 0.36504638 0.35502708 0.3875941 0.40871593 0.39969066 0.35831654 0.22022422 0.13429925 0.18357272 -0.086627096 0.014128566 0.4281993 0.4055212 0.3521837 0.30609047 0.22624648 0.2340711 0.2591654 0.32100323 0.3389893 0.32562616 0.28320006 0.03274014 0.17557152 0.220816 0.46768168 0.44845444 0.4220115 0.32811642 0.36191687 0.37588045 0.33669943 0.28832757 0.37059653 0.43420017 0.47346956 0.4751081 0.45943576 0.8243263 0.8457701 0.89100045 0.86996245 0.8033723 0.75795424 0.71996903 0.7607423 0.73024446 0.676945 0.6828357 0.6670109 0.6409312 0.5687158 0.51942843 0.53394836 0.3022018 0.3735493 0.38883078 0.23910302 0.1871291 0.6185857 0.6046108 0.57910526 0.14033434 0.06578761 0.05458255 0.08159231 0.045084003 0.4372633 0.4791997 0.5365088 0.5859691 0.60235554 0.5982672 0.62731946 0.6259582 0.5861183 0.51979256 -0.030246325 0.05118516 -0.18856147 0.064194106 0.04970654 0.028425604 -0.17646284 -0.038577512 -0.05452913 -0.030009504 -0.11388053 -0.13486047 0.40622267 0.47005418 0.52873755 0.57770425 0.6041327 0.59350145 0.6223427 0.62799966 0.08886407 -0.12070511 -0.30666414 -0.37191972 -0.16361535 -0.14112324 -0.07252885 -0.06070824 -0.14456515 -0.08359365 -0.008063346 0.1764166 0.34341037 0.47771433 0.4955075 0.5613506 0.5722347 0.54534656 0.60285085 0.05705759 0.33592898 0.42743707 0.4437599 0.46736014 0.4753929 0.57200575 -0.13321784 0.23847872 0.53135103 -0.13274902 -0.0122794965 0.20045653 0.43509817 -0.19349983 -0.38242042 -0.3652826 0.02429825 0.19912168 0.28800142 0.30591196 0.27250284 -0.4887674 -0.42095867 0.35608318 0.3982628 0.16563961 -0.33024454 -0.44998682 0.4820158 0.49881136 0.18201335 0.16204143 -0.30615425 -0.48611212 0.5365236 0.54942393 0.19622305 0.53613746 0.5616381 0.57536066 0.23431695 -0.1397731 0.27189988 0.49008077 0.5313046 0.5630777 0.25505114 -0.021463461 0.09906851 0.32711643 0.40525687 0.487411 0.49948543 0.52349114 0.25733322 0.26835024 0.16145241 0.0763066 0.44104487 0.4793982 0.49225748 0.5004042 0.27732033 0.2902127 0.23378019 0.20508468 0.3026869 0.31411022 0.26080227 0.30431595 0.32897907 0.33657962 0.36477995 0.3281899 0.33707604 0.3054301 0.2400315 0.15015608 0.13263415 0.18075757 0.28533915 0.2581435 -0.013194777 -0.080204055 0.17312604 0.39872792 0.35223636 0.21379834 0.29729974 0.35055032 0.39494234 0.40359044 0.3602475 0.34141073 0.18642047 0.2766285 0.34472394 0.4236085 0.4585383 0.45540452 0.35623735 0.4100559 0.42094716 0.41057009 0.29037908 0.3313833 0.39576507 0.45359027 0.72442156 0.7495147 0.79104275 0.807657 0.7641996 0.7295562 0.61848336 0.65581745 0.65239346 0.6975287 0.65342206 0.52048993 0.60188484 0.35883114 0.46356815 0.20900568 0.3266188 0.13692163 0.09123939 0.18131384 0.19617517 0.17117937 0.42823988 0.4772284 0.5235338 0.56102854 0.580037 0.5805055 0.5754142 0.59950167 0.5764733 0.53604555 -0.06586562 0.0059807673 0.06667797 0.12322002 0.11394134 0.16590153 0.11558585 0.081499495 0.045743152 -0.034649644 0.34024978 0.4192378 0.48580092 0.52988833 0.5801231 0.59570646 0.5912368 0.58434516 0.57809997 0.61490786 0.60271466 0.4007098 0.38328803 -0.11073461 -0.019810624 -0.14247003 -0.1829526 -0.14040107 -0.22550865 -0.12837991 0.21259785 0.3126396 0.5905122 0.579994 0.5725336 0.61314523 0.6189649 0.062484648 -0.24037811 -0.3380847 -0.21023521 -0.22430688 -0.16352996 -0.06304431 0.5564383 0.5433364 0.5449369 0.58634496 -0.5451677 0.4407035 0.47041243 0.5208508 0.5352206 0.20162109 0.3106147 0.3257482 0.3369437 0.33323798 0.48321497 0.45705956 -0.045140162 0.10957401 0.23575976 0.22466286 0.38068822 0.30777058 0.2490149 0.26792157 0.36038786 0.3857899 0.20841031 -0.5998955 0.47841477 0.24782088 0.55393225 0.54785186 0.24854648 0.5931058 0.26529238 0.24917713 0.5872976 0.5982803 0.25180596 -0.10849047 0.193641 0.50284165 0.52347034 0.5645652 0.24290514 0.24999002 0.07058058 0.0681583 0.37216455 0.43778375 0.4696176 0.48882157 0.49130577 0.50630975 0.24692312 0.25620756 0.09768949 0.42173827 0.4509649 0.47601566 0.47429228 0.25814798 0.2677736 0.1585542 0.1904601 0.28568038 0.2802869 0.24712667 0.2818552 0.26710966 0.20889342 0.11964034 0.111022025 0.04625313 0.03827042 0.33077186 0.32720983 0.09488462 0.103102304 0.18445477 0.29674545 0.31551713 0.15484188 0.22631648 0.3786099 0.3684978 0.28833708 0.35972202 0.40758443 0.42060575 0.39608094 0.35483545 0.23604232 0.25424904 0.3033784 0.33593518 0.64102817 0.67575115 0.72642696 0.7117435 0.52577806 0.53904676 0.6082541 0.6685612 0.68499184 0.66579497 0.34486896 0.39712405 0.5481841 0.59376913 0.23613137 0.4466194 0.15653548 0.269961 0.18163362 0.22180042 0.26367956 0.25978723 0.2056188 0.44407406 0.48972964 0.5276475 0.54582477 0.54612267 -0.021728087 0.0850354 0.088018194 0.0447144 0.14649725 0.18734062 0.21826805 0.20310703 0.16500159 0.087955765 0.3549003 0.39531684 0.45128965 0.5027317 0.54051423 0.56080794 0.56415 0.5676772 0.5724377 0.5779543 0.54430485 0.5213412 -0.1310024 -0.059126455 -0.0